+ 0.05 0 5 tcp 40 ------- 1 0.0 1.3 0 0
- 0.05 0 5 tcp 40 ------- 1 0.0 1.3 0 0
r 0.08064 0 5 tcp 40 ------- 1 0.0 1.3 0 0
+ 0.08064 5 4 tcp 40 ------- 1 0.0 1.3 0 0
- 0.08064 5 4 tcp 40 ------- 1 0.0 1.3 0 0
r 0.11128 5 4 tcp 40 ------- 1 0.0 1.3 0 0
+ 0.11128 4 1 tcp 40 ------- 1 0.0 1.3 0 0
- 0.11128 4 1 tcp 40 ------- 1 0.0 1.3 0 0
+ 0.14 1 4 tcp 40 ------- 1 1.0 2.3 0 1
- 0.14 1 4 tcp 40 ------- 1 1.0 2.3 0 1
r 0.14192 4 1 tcp 40 ------- 1 0.0 1.3 0 0
r 0.17064 1 4 tcp 40 ------- 1 1.0 2.3 0 1
+ 0.17064 4 5 tcp 40 ------- 1 1.0 2.3 0 1
- 0.17064 4 5 tcp 40 ------- 1 1.0 2.3 0 1
r 0.20128 4 5 tcp 40 ------- 1 1.0 2.3 0 1
+ 0.20128 5 2 tcp 40 ------- 1 1.0 2.3 0 1
- 0.20128 5 2 tcp 40 ------- 1 1.0 2.3 0 1
+ 0.23 2 5 tcp 40 ------- 1 2.0 3.3 0 2
- 0.23 2 5 tcp 40 ------- 1 2.0 3.3 0 2
r 0.23192 5 2 tcp 40 ------- 1 1.0 2.3 0 1
r 0.26064 2 5 tcp 40 ------- 1 2.0 3.3 0 2
+ 0.26064 5 6 tcp 40 ------- 1 2.0 3.3 0 2
- 0.26064 5 6 tcp 40 ------- 1 2.0 3.3 0 2
r 0.29128 5 6 tcp 40 ------- 1 2.0 3.3 0 2
+ 0.29128 6 3 tcp 40 ------- 1 2.0 3.3 0 2
- 0.29128 6 3 tcp 40 ------- 1 2.0 3.3 0 2
r 0.32192 6 3 tcp 40 ------- 1 2.0 3.3 0 2
+ 0.33 3 6 tcp 40 ------- 1 3.0 0.3 0 3
- 0.33 3 6 tcp 40 ------- 1 3.0 0.3 0 3
r 0.36064 3 6 tcp 40 ------- 1 3.0 0.3 0 3
+ 0.36064 6 5 tcp 40 ------- 1 3.0 0.3 0 3
- 0.36064 6 5 tcp 40 ------- 1 3.0 0.3 0 3
r 0.39128 6 5 tcp 40 ------- 1 3.0 0.3 0 3
+ 0.39128 5 0 tcp 40 ------- 1 3.0 0.3 0 3
- 0.39128 5 0 tcp 40 ------- 1 3.0 0.3 0 3
